
     Program PWSCF v.7.1 starts on  2May2023 at 12: 4: 5 

     This program is part of the open-source Quantum ESPRESSO suite
     for quantum simulation of materials; please cite
         "P. Giannozzi et al., J. Phys.:Condens. Matter 21 395502 (2009);
         "P. Giannozzi et al., J. Phys.:Condens. Matter 29 465901 (2017);
         "P. Giannozzi et al., J. Chem. Phys. 152 154105 (2020);
          URL http://www.quantum-espresso.org", 
     in publications or presentations arising from this work. More details at
     http://www.quantum-espresso.org/quote

     Parallel version (MPI & OpenMP), running on      40 processor cores
     Number of MPI processes:                40
     Threads/MPI process:                     1

     MPI processes distributed on     1 nodes
     97739 MiB available memory on the printing compute node when the environment starts
 
     Reading input from espresso_scf.pwi
Warning: card &CELL ignored
Warning: card / ignored

     Current dimensions of program PWSCF are:
     Max number of different atomic species (ntypx) = 10
     Max number of k-points (npk) =  40000
     Max angular momentum in pseudopotentials (lmaxx) =  4
     Presently no symmetry can be used with electric field

     Presently stress not available with electric field and gates


     IMPORTANT: XC functional enforced from input :
     Exchange-correlation= VDW-DF2-B86R
                           (   1   4  26   0   2   0   0)
     Any further DFT definition will be discarded
     Please, verify this is what you really want

 
     R & G space division:  proc/nbgrp/npool/nimage =      40
     Subspace diagonalization in iterative solution of the eigenvalue problem:
     a serial algorithm will be used

 
     Parallelization info
     --------------------
     sticks:   dense  smooth     PW     G-vecs:    dense   smooth      PW
     Min          27      13      4                 4761     1679     296
     Max          28      14      5                 4783     1696     327
     Sum        1085     547    167               190927    67509   12135
 
     Using Slab Decomposition
 


     bravais-lattice index     =            0
     lattice parameter (alat)  =       5.6944  a.u.
     unit-cell volume          =    1076.1643 (a.u.)^3
     number of atoms/cell      =            4
     number of atomic types    =            2
     number of electrons       =         8.00
     number of Kohn-Sham states=            8
     kinetic-energy cutoff     =      60.0000  Ry
     charge density cutoff     =     480.0000  Ry
     scf convergence threshold =      1.0E-09
     mixing beta               =       0.7000
     number of iterations used =            8  plain     mixing
     Exchange-correlation= VDW-DF2-B86R
                           (   1   4  26   0   2   0   0)

     celldm(1)=   5.694435  celldm(2)=   0.000000  celldm(3)=   0.000000
     celldm(4)=   0.000000  celldm(5)=   0.000000  celldm(6)=   0.000000

     crystal axes: (cart. coord. in units of alat)
               a(1) = (   0.999994  -0.003588   0.000000 )  
               a(2) = (   0.503173   0.876310   0.000000 )  
               a(3) = (   0.000000   0.000000   6.637096 )  

     reciprocal axes: (cart. coord. in units 2 pi/alat)
               b(1) = (  0.997950 -0.573019  0.000000 )  
               b(2) = (  0.004086  1.138803  0.000000 )  
               b(3) = (  0.000000  0.000000  0.150668 )  


     PseudoPot. # 1 for B  read from file:
     /home/krojas/share/lib/qe_pseudo/gbrv/b_pbe_v1.4.uspp.F.UPF
     MD5 check sum: cc6de2960df11db49a60e589f9ebb39b
     Pseudo is Ultrasoft + core correction, Zval =  3.0
     Generated by new atomic code, or converted to UPF format
     Using radial grid of  781 points,  4 beta functions with: 
                l(1) =   0
                l(2) =   0
                l(3) =   1
                l(4) =   1
     Q(r) pseudized with  8 coefficients,  rinner =    1.100   1.100   1.100


     PseudoPot. # 2 for H  read from file:
     /home/krojas/share/lib/qe_pseudo/gbrv/h_pbe_v1.4.uspp.F.UPF
     MD5 check sum: 761ae9a214b05c3daf00ab9f6b793d6f
     Pseudo is Ultrasoft, Zval =  1.0
     Generated by new atomic code, or converted to UPF format
     Using radial grid of  615 points,  2 beta functions with: 
                l(1) =   0
                l(2) =   0
     Q(r) pseudized with  8 coefficients,  rinner =    0.700

     atomic species   valence    mass     pseudopotential
        B              3.00    10.81000     B ( 1.00)
        H              1.00     1.00800     H ( 1.00)

     No symmetry found


                                    s                        frac. trans.

      isym =  1     identity                                     

 cryst.   s( 1) = (     1          0          0      )
                  (     0          1          0      )
                  (     0          0          1      )

 cart.    s( 1) = (  1.0000000 -0.0000000  0.0000000 )
                  (  0.0000000  1.0000000  0.0000000 )
                  (  0.0000000  0.0000000  1.0000000 )


   Cartesian axes

     site n.     atom                  positions (alat units)
         1           B   tau(   1) = (   0.0000000   0.0000000   3.3517347  )
         2           B   tau(   2) = (   0.5009411   0.2697366   3.3517347  )
         3           H   tau(   3) = (   0.5020641   0.5730585   3.6727695  )
         4           H   tau(   4) = (   0.5020641   0.5730585   3.0306999  )

   Crystallographic axes

     site n.     atom                  positions (cryst. coord.)
         1           B   tau(   1) = (  0.0000000  0.0000000  0.5050002  )
         2           B   tau(   2) = (  0.3453503  0.3092238  0.5050002  )
         3           H   tau(   3) = (  0.1726619  0.6546522  0.5533699  )
         4           H   tau(   4) = (  0.1726619  0.6546522  0.4566304  )

     number of k points=   130  Gaussian smearing, width (Ry)=  0.0100
                       cart. coord. in units 2pi/alat
        k(    1) = (   0.0000000   0.0000000   0.0000000), wk =   0.0078125
        k(    2) = (   0.0002554   0.0711752   0.0000000), wk =   0.0156250
        k(    3) = (   0.0005108   0.1423504   0.0000000), wk =   0.0156250
        k(    4) = (   0.0007662   0.2135255   0.0000000), wk =   0.0156250
        k(    5) = (   0.0010216   0.2847007   0.0000000), wk =   0.0156250
        k(    6) = (   0.0012770   0.3558759   0.0000000), wk =   0.0156250
        k(    7) = (   0.0015324   0.4270511   0.0000000), wk =   0.0156250
        k(    8) = (   0.0017878   0.4982262   0.0000000), wk =   0.0156250
        k(    9) = (  -0.0020431  -0.5694014   0.0000000), wk =   0.0078125
        k(   10) = (   0.0623719  -0.0358137   0.0000000), wk =   0.0156250
        k(   11) = (   0.0626273   0.0353615   0.0000000), wk =   0.0156250
        k(   12) = (   0.0628827   0.1065367   0.0000000), wk =   0.0156250
        k(   13) = (   0.0631381   0.1777119   0.0000000), wk =   0.0156250
        k(   14) = (   0.0633935   0.2488870   0.0000000), wk =   0.0156250
        k(   15) = (   0.0636489   0.3200622   0.0000000), wk =   0.0156250
        k(   16) = (   0.0639043   0.3912374   0.0000000), wk =   0.0156250
        k(   17) = (   0.0641596   0.4624126   0.0000000), wk =   0.0156250
        k(   18) = (   0.0603288  -0.6052151   0.0000000), wk =   0.0156250
        k(   19) = (   0.0605841  -0.5340399   0.0000000), wk =   0.0156250
        k(   20) = (   0.0608395  -0.4628647   0.0000000), wk =   0.0156250
        k(   21) = (   0.0610949  -0.3916895   0.0000000), wk =   0.0156250
        k(   22) = (   0.0613503  -0.3205144   0.0000000), wk =   0.0156250
        k(   23) = (   0.0616057  -0.2493392   0.0000000), wk =   0.0156250
        k(   24) = (   0.0618611  -0.1781640   0.0000000), wk =   0.0156250
        k(   25) = (   0.0621165  -0.1069888   0.0000000), wk =   0.0156250
        k(   26) = (   0.1247438  -0.0716273   0.0000000), wk =   0.0156250
        k(   27) = (   0.1249992  -0.0004521   0.0000000), wk =   0.0156250
        k(   28) = (   0.1252546   0.0707230   0.0000000), wk =   0.0156250
        k(   29) = (   0.1255100   0.1418982   0.0000000), wk =   0.0156250
        k(   30) = (   0.1257654   0.2130734   0.0000000), wk =   0.0156250
        k(   31) = (   0.1260208   0.2842486   0.0000000), wk =   0.0156250
        k(   32) = (   0.1262761   0.3554237   0.0000000), wk =   0.0156250
        k(   33) = (   0.1265315   0.4265989   0.0000000), wk =   0.0156250
        k(   34) = (   0.1227006  -0.6410287   0.0000000), wk =   0.0156250
        k(   35) = (   0.1229560  -0.5698535   0.0000000), wk =   0.0156250
        k(   36) = (   0.1232114  -0.4986784   0.0000000), wk =   0.0156250
        k(   37) = (   0.1234668  -0.4275032   0.0000000), wk =   0.0156250
        k(   38) = (   0.1237222  -0.3563280   0.0000000), wk =   0.0156250
        k(   39) = (   0.1239776  -0.2851528   0.0000000), wk =   0.0156250
        k(   40) = (   0.1242330  -0.2139777   0.0000000), wk =   0.0156250
        k(   41) = (   0.1244884  -0.1428025   0.0000000), wk =   0.0156250
        k(   42) = (   0.1871157  -0.1074410   0.0000000), wk =   0.0156250
        k(   43) = (   0.1873711  -0.0362658   0.0000000), wk =   0.0156250
        k(   44) = (   0.1876265   0.0349094   0.0000000), wk =   0.0156250
        k(   45) = (   0.1878819   0.1060846   0.0000000), wk =   0.0156250
        k(   46) = (   0.1881373   0.1772597   0.0000000), wk =   0.0156250
        k(   47) = (   0.1883926   0.2484349   0.0000000), wk =   0.0156250
        k(   48) = (   0.1886480   0.3196101   0.0000000), wk =   0.0156250
        k(   49) = (   0.1889034   0.3907853   0.0000000), wk =   0.0156250
        k(   50) = (   0.1850725  -0.6768424   0.0000000), wk =   0.0156250
        k(   51) = (   0.1853279  -0.6056672   0.0000000), wk =   0.0156250
        k(   52) = (   0.1855833  -0.5344920   0.0000000), wk =   0.0156250
        k(   53) = (   0.1858387  -0.4633169   0.0000000), wk =   0.0156250
        k(   54) = (   0.1860941  -0.3921417   0.0000000), wk =   0.0156250
        k(   55) = (   0.1863495  -0.3209665   0.0000000), wk =   0.0156250
        k(   56) = (   0.1866049  -0.2497913   0.0000000), wk =   0.0156250
        k(   57) = (   0.1868603  -0.1786161   0.0000000), wk =   0.0156250
        k(   58) = (   0.2494876  -0.1432546   0.0000000), wk =   0.0156250
        k(   59) = (   0.2497430  -0.0720795   0.0000000), wk =   0.0156250
        k(   60) = (   0.2499984  -0.0009043   0.0000000), wk =   0.0156250
        k(   61) = (   0.2502538   0.0702709   0.0000000), wk =   0.0156250
        k(   62) = (   0.2505092   0.1414461   0.0000000), wk =   0.0156250
        k(   63) = (   0.2507645   0.2126213   0.0000000), wk =   0.0156250
        k(   64) = (   0.2510199   0.2837964   0.0000000), wk =   0.0156250
        k(   65) = (   0.2512753   0.3549716   0.0000000), wk =   0.0156250
        k(   66) = (   0.2474444  -0.7126560   0.0000000), wk =   0.0156250
        k(   67) = (   0.2476998  -0.6414809   0.0000000), wk =   0.0156250
        k(   68) = (   0.2479552  -0.5703057   0.0000000), wk =   0.0156250
        k(   69) = (   0.2482106  -0.4991305   0.0000000), wk =   0.0156250
        k(   70) = (   0.2484660  -0.4279553   0.0000000), wk =   0.0156250
        k(   71) = (   0.2487214  -0.3567802   0.0000000), wk =   0.0156250
        k(   72) = (   0.2489768  -0.2856050   0.0000000), wk =   0.0156250
        k(   73) = (   0.2492322  -0.2144298   0.0000000), wk =   0.0156250
        k(   74) = (   0.3118595  -0.1790683   0.0000000), wk =   0.0156250
        k(   75) = (   0.3121149  -0.1078931   0.0000000), wk =   0.0156250
        k(   76) = (   0.3123703  -0.0367179   0.0000000), wk =   0.0156250
        k(   77) = (   0.3126257   0.0344572   0.0000000), wk =   0.0156250
        k(   78) = (   0.3128810   0.1056324   0.0000000), wk =   0.0156250
        k(   79) = (   0.3131364   0.1768076   0.0000000), wk =   0.0156250
        k(   80) = (   0.3133918   0.2479828   0.0000000), wk =   0.0156250
        k(   81) = (   0.3136472   0.3191579   0.0000000), wk =   0.0156250
        k(   82) = (   0.3098163  -0.7484697   0.0000000), wk =   0.0156250
        k(   83) = (   0.3100717  -0.6772945   0.0000000), wk =   0.0156250
        k(   84) = (   0.3103271  -0.6061193   0.0000000), wk =   0.0156250
        k(   85) = (   0.3105825  -0.5349442   0.0000000), wk =   0.0156250
        k(   86) = (   0.3108379  -0.4637690   0.0000000), wk =   0.0156250
        k(   87) = (   0.3110933  -0.3925938   0.0000000), wk =   0.0156250
        k(   88) = (   0.3113487  -0.3214186   0.0000000), wk =   0.0156250
        k(   89) = (   0.3116041  -0.2502435   0.0000000), wk =   0.0156250
        k(   90) = (   0.3742314  -0.2148819   0.0000000), wk =   0.0156250
        k(   91) = (   0.3744868  -0.1437068   0.0000000), wk =   0.0156250
        k(   92) = (   0.3747422  -0.0725316   0.0000000), wk =   0.0156250
        k(   93) = (   0.3749975  -0.0013564   0.0000000), wk =   0.0156250
        k(   94) = (   0.3752529   0.0698188   0.0000000), wk =   0.0156250
        k(   95) = (   0.3755083   0.1409939   0.0000000), wk =   0.0156250
        k(   96) = (   0.3757637   0.2121691   0.0000000), wk =   0.0156250
        k(   97) = (   0.3760191   0.2833443   0.0000000), wk =   0.0156250
        k(   98) = (   0.3721882  -0.7842834   0.0000000), wk =   0.0156250
        k(   99) = (   0.3724436  -0.7131082   0.0000000), wk =   0.0156250
        k(  100) = (   0.3726990  -0.6419330   0.0000000), wk =   0.0156250
        k(  101) = (   0.3729544  -0.5707578   0.0000000), wk =   0.0156250
        k(  102) = (   0.3732098  -0.4995826   0.0000000), wk =   0.0156250
        k(  103) = (   0.3734652  -0.4284075   0.0000000), wk =   0.0156250
        k(  104) = (   0.3737206  -0.3572323   0.0000000), wk =   0.0156250
        k(  105) = (   0.3739760  -0.2860571   0.0000000), wk =   0.0156250
        k(  106) = (   0.4366033  -0.2506956   0.0000000), wk =   0.0156250
        k(  107) = (   0.4368587  -0.1795204   0.0000000), wk =   0.0156250
        k(  108) = (   0.4371140  -0.1083452   0.0000000), wk =   0.0156250
        k(  109) = (   0.4373694  -0.0371701   0.0000000), wk =   0.0156250
        k(  110) = (   0.4376248   0.0340051   0.0000000), wk =   0.0156250
        k(  111) = (   0.4378802   0.1051803   0.0000000), wk =   0.0156250
        k(  112) = (   0.4381356   0.1763555   0.0000000), wk =   0.0156250
        k(  113) = (   0.4383910   0.2475306   0.0000000), wk =   0.0156250
        k(  114) = (   0.4345601  -0.8200970   0.0000000), wk =   0.0156250
        k(  115) = (   0.4348155  -0.7489218   0.0000000), wk =   0.0156250
        k(  116) = (   0.4350709  -0.6777467   0.0000000), wk =   0.0156250
        k(  117) = (   0.4353263  -0.6065715   0.0000000), wk =   0.0156250
        k(  118) = (   0.4355817  -0.5353963   0.0000000), wk =   0.0156250
        k(  119) = (   0.4358371  -0.4642211   0.0000000), wk =   0.0156250
        k(  120) = (   0.4360925  -0.3930460   0.0000000), wk =   0.0156250
        k(  121) = (   0.4363479  -0.3218708   0.0000000), wk =   0.0156250
        k(  122) = (  -0.4989752   0.2865093   0.0000000), wk =   0.0078125
        k(  123) = (  -0.4987198   0.3576844   0.0000000), wk =   0.0156250
        k(  124) = (  -0.4984644   0.4288596   0.0000000), wk =   0.0156250
        k(  125) = (  -0.4982090   0.5000348   0.0000000), wk =   0.0156250
        k(  126) = (  -0.4979536   0.5712100   0.0000000), wk =   0.0156250
        k(  127) = (  -0.4976982   0.6423851   0.0000000), wk =   0.0156250
        k(  128) = (  -0.4974428   0.7135603   0.0000000), wk =   0.0156250
        k(  129) = (  -0.4971874   0.7847355   0.0000000), wk =   0.0156250
        k(  130) = (  -0.5010183  -0.2828922   0.0000000), wk =   0.0078125

                       cryst. coord.
        k(    1) = (   0.0000000   0.0000000   0.0000000), wk =   0.0078125
        k(    2) = (   0.0000000   0.0625000   0.0000000), wk =   0.0156250
        k(    3) = (   0.0000000   0.1250000   0.0000000), wk =   0.0156250
        k(    4) = (   0.0000000   0.1875000   0.0000000), wk =   0.0156250
        k(    5) = (   0.0000000   0.2500000   0.0000000), wk =   0.0156250
        k(    6) = (   0.0000000   0.3125000   0.0000000), wk =   0.0156250
        k(    7) = (   0.0000000   0.3750000   0.0000000), wk =   0.0156250
        k(    8) = (   0.0000000   0.4375000   0.0000000), wk =   0.0156250
        k(    9) = (   0.0000000  -0.5000000   0.0000000), wk =   0.0078125
        k(   10) = (   0.0625000   0.0000000   0.0000000), wk =   0.0156250
        k(   11) = (   0.0625000   0.0625000   0.0000000), wk =   0.0156250
        k(   12) = (   0.0625000   0.1250000   0.0000000), wk =   0.0156250
        k(   13) = (   0.0625000   0.1875000   0.0000000), wk =   0.0156250
        k(   14) = (   0.0625000   0.2500000   0.0000000), wk =   0.0156250
        k(   15) = (   0.0625000   0.3125000   0.0000000), wk =   0.0156250
        k(   16) = (   0.0625000   0.3750000   0.0000000), wk =   0.0156250
        k(   17) = (   0.0625000   0.4375000   0.0000000), wk =   0.0156250
        k(   18) = (   0.0625000  -0.5000000   0.0000000), wk =   0.0156250
        k(   19) = (   0.0625000  -0.4375000   0.0000000), wk =   0.0156250
        k(   20) = (   0.0625000  -0.3750000   0.0000000), wk =   0.0156250
        k(   21) = (   0.0625000  -0.3125000   0.0000000), wk =   0.0156250
        k(   22) = (   0.0625000  -0.2500000   0.0000000), wk =   0.0156250
        k(   23) = (   0.0625000  -0.1875000   0.0000000), wk =   0.0156250
        k(   24) = (   0.0625000  -0.1250000   0.0000000), wk =   0.0156250
        k(   25) = (   0.0625000  -0.0625000   0.0000000), wk =   0.0156250
        k(   26) = (   0.1250000   0.0000000   0.0000000), wk =   0.0156250
        k(   27) = (   0.1250000   0.0625000   0.0000000), wk =   0.0156250
        k(   28) = (   0.1250000   0.1250000   0.0000000), wk =   0.0156250
        k(   29) = (   0.1250000   0.1875000   0.0000000), wk =   0.0156250
        k(   30) = (   0.1250000   0.2500000   0.0000000), wk =   0.0156250
        k(   31) = (   0.1250000   0.3125000   0.0000000), wk =   0.0156250
        k(   32) = (   0.1250000   0.3750000   0.0000000), wk =   0.0156250
        k(   33) = (   0.1250000   0.4375000   0.0000000), wk =   0.0156250
        k(   34) = (   0.1250000  -0.5000000   0.0000000), wk =   0.0156250
        k(   35) = (   0.1250000  -0.4375000   0.0000000), wk =   0.0156250
        k(   36) = (   0.1250000  -0.3750000   0.0000000), wk =   0.0156250
        k(   37) = (   0.1250000  -0.3125000   0.0000000), wk =   0.0156250
        k(   38) = (   0.1250000  -0.2500000   0.0000000), wk =   0.0156250
        k(   39) = (   0.1250000  -0.1875000   0.0000000), wk =   0.0156250
        k(   40) = (   0.1250000  -0.1250000   0.0000000), wk =   0.0156250
        k(   41) = (   0.1250000  -0.0625000   0.0000000), wk =   0.0156250
        k(   42) = (   0.1875000  -0.0000000   0.0000000), wk =   0.0156250
        k(   43) = (   0.1875000   0.0625000   0.0000000), wk =   0.0156250
        k(   44) = (   0.1875000   0.1250000   0.0000000), wk =   0.0156250
        k(   45) = (   0.1875000   0.1875000   0.0000000), wk =   0.0156250
        k(   46) = (   0.1875000   0.2500000   0.0000000), wk =   0.0156250
        k(   47) = (   0.1875000   0.3125000   0.0000000), wk =   0.0156250
        k(   48) = (   0.1875000   0.3750000   0.0000000), wk =   0.0156250
        k(   49) = (   0.1875000   0.4375000   0.0000000), wk =   0.0156250
        k(   50) = (   0.1875000  -0.5000000   0.0000000), wk =   0.0156250
        k(   51) = (   0.1875000  -0.4375000   0.0000000), wk =   0.0156250
        k(   52) = (   0.1875000  -0.3750000   0.0000000), wk =   0.0156250
        k(   53) = (   0.1875000  -0.3125000   0.0000000), wk =   0.0156250
        k(   54) = (   0.1875000  -0.2500000   0.0000000), wk =   0.0156250
        k(   55) = (   0.1875000  -0.1875000   0.0000000), wk =   0.0156250
        k(   56) = (   0.1875000  -0.1250000   0.0000000), wk =   0.0156250
        k(   57) = (   0.1875000  -0.0625000   0.0000000), wk =   0.0156250
        k(   58) = (   0.2500000   0.0000000   0.0000000), wk =   0.0156250
        k(   59) = (   0.2500000   0.0625000   0.0000000), wk =   0.0156250
        k(   60) = (   0.2500000   0.1250000   0.0000000), wk =   0.0156250
        k(   61) = (   0.2500000   0.1875000   0.0000000), wk =   0.0156250
        k(   62) = (   0.2500000   0.2500000   0.0000000), wk =   0.0156250
        k(   63) = (   0.2500000   0.3125000   0.0000000), wk =   0.0156250
        k(   64) = (   0.2500000   0.3750000   0.0000000), wk =   0.0156250
        k(   65) = (   0.2500000   0.4375000   0.0000000), wk =   0.0156250
        k(   66) = (   0.2500000  -0.5000000   0.0000000), wk =   0.0156250
        k(   67) = (   0.2500000  -0.4375000   0.0000000), wk =   0.0156250
        k(   68) = (   0.2500000  -0.3750000   0.0000000), wk =   0.0156250
        k(   69) = (   0.2500000  -0.3125000   0.0000000), wk =   0.0156250
        k(   70) = (   0.2500000  -0.2500000   0.0000000), wk =   0.0156250
        k(   71) = (   0.2500000  -0.1875000   0.0000000), wk =   0.0156250
        k(   72) = (   0.2500000  -0.1250000   0.0000000), wk =   0.0156250
        k(   73) = (   0.2500000  -0.0625000   0.0000000), wk =   0.0156250
        k(   74) = (   0.3125000  -0.0000000   0.0000000), wk =   0.0156250
        k(   75) = (   0.3125000   0.0625000   0.0000000), wk =   0.0156250
        k(   76) = (   0.3125000   0.1250000   0.0000000), wk =   0.0156250
        k(   77) = (   0.3125000   0.1875000   0.0000000), wk =   0.0156250
        k(   78) = (   0.3125000   0.2500000   0.0000000), wk =   0.0156250
        k(   79) = (   0.3125000   0.3125000   0.0000000), wk =   0.0156250
        k(   80) = (   0.3125000   0.3750000   0.0000000), wk =   0.0156250
        k(   81) = (   0.3125000   0.4375000   0.0000000), wk =   0.0156250
        k(   82) = (   0.3125000  -0.5000000   0.0000000), wk =   0.0156250
        k(   83) = (   0.3125000  -0.4375000   0.0000000), wk =   0.0156250
        k(   84) = (   0.3125000  -0.3750000   0.0000000), wk =   0.0156250
        k(   85) = (   0.3125000  -0.3125000   0.0000000), wk =   0.0156250
        k(   86) = (   0.3125000  -0.2500000   0.0000000), wk =   0.0156250
        k(   87) = (   0.3125000  -0.1875000   0.0000000), wk =   0.0156250
        k(   88) = (   0.3125000  -0.1250000   0.0000000), wk =   0.0156250
        k(   89) = (   0.3125000  -0.0625000   0.0000000), wk =   0.0156250
        k(   90) = (   0.3750000  -0.0000000   0.0000000), wk =   0.0156250
        k(   91) = (   0.3750000   0.0625000   0.0000000), wk =   0.0156250
        k(   92) = (   0.3750000   0.1250000   0.0000000), wk =   0.0156250
        k(   93) = (   0.3750000   0.1875000   0.0000000), wk =   0.0156250
        k(   94) = (   0.3750000   0.2500000   0.0000000), wk =   0.0156250
        k(   95) = (   0.3750000   0.3125000   0.0000000), wk =   0.0156250
        k(   96) = (   0.3750000   0.3750000   0.0000000), wk =   0.0156250
        k(   97) = (   0.3750000   0.4375000   0.0000000), wk =   0.0156250
        k(   98) = (   0.3750000  -0.5000000   0.0000000), wk =   0.0156250
        k(   99) = (   0.3750000  -0.4375000   0.0000000), wk =   0.0156250
        k(  100) = (   0.3750000  -0.3750000   0.0000000), wk =   0.0156250
        k(  101) = (   0.3750000  -0.3125000   0.0000000), wk =   0.0156250
        k(  102) = (   0.3750000  -0.2500000   0.0000000), wk =   0.0156250
        k(  103) = (   0.3750000  -0.1875000   0.0000000), wk =   0.0156250
        k(  104) = (   0.3750000  -0.1250000   0.0000000), wk =   0.0156250
        k(  105) = (   0.3750000  -0.0625000   0.0000000), wk =   0.0156250
        k(  106) = (   0.4375000  -0.0000000   0.0000000), wk =   0.0156250
        k(  107) = (   0.4375000   0.0625000   0.0000000), wk =   0.0156250
        k(  108) = (   0.4375000   0.1250000   0.0000000), wk =   0.0156250
        k(  109) = (   0.4375000   0.1875000   0.0000000), wk =   0.0156250
        k(  110) = (   0.4375000   0.2500000   0.0000000), wk =   0.0156250
        k(  111) = (   0.4375000   0.3125000   0.0000000), wk =   0.0156250
        k(  112) = (   0.4375000   0.3750000   0.0000000), wk =   0.0156250
        k(  113) = (   0.4375000   0.4375000   0.0000000), wk =   0.0156250
        k(  114) = (   0.4375000  -0.5000000   0.0000000), wk =   0.0156250
        k(  115) = (   0.4375000  -0.4375000   0.0000000), wk =   0.0156250
        k(  116) = (   0.4375000  -0.3750000   0.0000000), wk =   0.0156250
        k(  117) = (   0.4375000  -0.3125000   0.0000000), wk =   0.0156250
        k(  118) = (   0.4375000  -0.2500000   0.0000000), wk =   0.0156250
        k(  119) = (   0.4375000  -0.1875000   0.0000000), wk =   0.0156250
        k(  120) = (   0.4375000  -0.1250000   0.0000000), wk =   0.0156250
        k(  121) = (   0.4375000  -0.0625000   0.0000000), wk =   0.0156250
        k(  122) = (  -0.5000000   0.0000000   0.0000000), wk =   0.0078125
        k(  123) = (  -0.5000000   0.0625000   0.0000000), wk =   0.0156250
        k(  124) = (  -0.5000000   0.1250000   0.0000000), wk =   0.0156250
        k(  125) = (  -0.5000000   0.1875000   0.0000000), wk =   0.0156250
        k(  126) = (  -0.5000000   0.2500000   0.0000000), wk =   0.0156250
        k(  127) = (  -0.5000000   0.3125000   0.0000000), wk =   0.0156250
        k(  128) = (  -0.5000000   0.3750000   0.0000000), wk =   0.0156250
        k(  129) = (  -0.5000000   0.4375000   0.0000000), wk =   0.0156250
        k(  130) = (  -0.5000000  -0.5000000   0.0000000), wk =   0.0078125

     Dense  grid:   190927 G-vectors     FFT dimensions: (  40,  45, 270)

     Smooth grid:    67509 G-vectors     FFT dimensions: (  30,  30, 192)

     Dynamical RAM for                 wfc:       0.03 MB

     Dynamical RAM for     wfc (w. buffer):       3.37 MB

     Dynamical RAM for           str. fact:       0.15 MB

     Dynamical RAM for           local pot:       0.00 MB

     Dynamical RAM for          nlocal pot:       0.06 MB

     Dynamical RAM for                qrad:       1.00 MB

     Dynamical RAM for          rho,v,vnew:       0.51 MB

     Dynamical RAM for               rhoin:       0.17 MB

     Dynamical RAM for            rho*nmix:       1.16 MB

     Dynamical RAM for           G-vectors:       0.29 MB

     Dynamical RAM for          h,s,v(r/c):       0.01 MB

     Dynamical RAM for          <psi|beta>:       0.00 MB

     Dynamical RAM for                 psi:       0.05 MB

     Dynamical RAM for                hpsi:       0.05 MB

     Dynamical RAM for                spsi:       0.05 MB

     Dynamical RAM for      wfcinit/wfcrot:       0.07 MB

     Dynamical RAM for           addusdens:       3.28 MB

     Dynamical RAM for          addusforce:       3.46 MB

     Estimated static dynamical RAM per process >       6.25 MB

     Estimated max dynamical RAM per process >      10.87 MB

     Estimated total dynamical RAM >     434.94 MB

     Initial potential from superposition of free atoms

     starting charge       7.9994, renormalised to       8.0000

     negative rho (up, down):  5.717E-05 0.000E+00


     %%%%%%%%%%%%%%%%%%%%%%%%%%%%%%%%%%%%%%%%%%%%%%%%%%%%%%%%%%%%%%%%%%%%%%%%
     %                                                                      %
     % You are using vdW-DF, which was implemented by the Thonhauser group. %
     % Please cite the following two papers that made this development      %
     % possible and the two reviews that describe the various versions:     %
     %                                                                      %
     %   T. Thonhauser et al., PRL 115, 136402 (2015).                      %
     %   T. Thonhauser et al., PRB 76, 125112 (2007).                       %
     %   K. Berland et al., Rep. Prog. Phys. 78, 066501 (2015).             %
     %   D.C. Langreth et al., J. Phys.: Condens. Matter 21, 084203 (2009). %
     %                                                                      %
     % If you are calculating stress with vdW-DF, please also cite:         %
     %                                                                      %
     %   R. Sabatini et al., J. Phys.: Condens. Matter 24, 424209 (2012).   %
     %                                                                      %
     %%%%%%%%%%%%%%%%%%%%%%%%%%%%%%%%%%%%%%%%%%%%%%%%%%%%%%%%%%%%%%%%%%%%%%%%

     %%%%%%%%%%%%%%%%%%%%%%%%%%%%%%%%%%%%%%%%%%%%%%%%%%%%%%%%%%%%%%%%%%%%%%%%
     %                                                                      %
     %  vdW-DF NEWS:                                                        %
     %                                                                      %
     %  * vdW-DF3 is now available. DOI: 10.1021/acs.jctc.0c00471           %
     %    use with input_dft = 'vdW-DF3-opt1' or 'vdW-DF3-opt2'             %
     %                                                                      %
     %  * Unscreened and range-separated vdW-DF hybrid functionals          %
     %    DOI: 10.1063/1.4986522 and 10.1088/1361-648X/ac2ad2               %
     %    use with input_dft = 'vdW-DF-cx0' (etc) and 'vdW-DF-ahcx'         %
     %                                                                      %
     %%%%%%%%%%%%%%%%%%%%%%%%%%%%%%%%%%%%%%%%%%%%%%%%%%%%%%%%%%%%%%%%%%%%%%%%


     Carrying out vdW-DF run using the following parameters:
     Nqs    =  20  Npoints =  1024  r_max =  100.000
     q_mesh =  0.00001000  0.04494208  0.09755937  0.15916263
               0.23128650  0.31572767  0.41458969  0.53033537
               0.66584808  0.82450364  1.01025438  1.22772762
               1.48234092  1.78043706  2.12944203  2.53805004
               3.01644009  3.57652955  4.23227104  5.00000000


     -----------------------------------------------
     Non-local corr. energy    =       0.08388643 Ry
     -----------------------------------------------

 
     Adding external electric field

     Computed dipole along edir(3) : 
        Elec. dipole         -0.5119 Ry au,         -1.3012 Debye
        Ion. dipole          -0.5119 Ry au,         -1.3012 Debye
        Dipole               -0.0000 Ry au,         -0.0000 Debye
        Dipole field         -0.0000 Ry au, 
 
        Potential amp.        0.0000 Ry
        Total length         34.0151 bohr
 
     Starting wfcs are   10 randomized atomic wfcs

     total cpu time spent up to now is        3.0 secs

     per-process dynamical memory:    10.3 Mb

     Self-consistent Calculation

     iteration #  1     ecut=    60.00 Ry     beta= 0.70
     Davidson diagonalization with overlap

---- Real-time Memory Report at c_bands before calling an iterative solver
           130 MiB given to the printing process from OS
            10 MiB allocation reported by mallinfo(arena+hblkhd)
         96345 MiB available memory on the node where the printing process lives
------------------
     ethr =  1.00E-02,  avg # of iterations =  3.9

     negative rho (up, down):  5.114E-05 0.000E+00


     -----------------------------------------------
     Non-local corr. energy    =       0.09810568 Ry
     -----------------------------------------------

 
     Adding external electric field

     Computed dipole along edir(3) : 
        Elec. dipole         -0.5119 Ry au,         -1.3012 Debye
        Ion. dipole          -0.5119 Ry au,         -1.3012 Debye
        Dipole               -0.0002 Ry au,         -0.0006 Debye
        Dipole field         -0.0000 Ry au, 
 
        Potential amp.        0.0002 Ry
        Total length         34.0151 bohr
 

     total cpu time spent up to now is        4.1 secs

     total energy              =     -15.04597374 Ry
     estimated scf accuracy    <       0.32786395 Ry

     iteration #  2     ecut=    60.00 Ry     beta= 0.70
     Davidson diagonalization with overlap

---- Real-time Memory Report at c_bands before calling an iterative solver
           139 MiB given to the printing process from OS
            10 MiB allocation reported by mallinfo(arena+hblkhd)
         95947 MiB available memory on the node where the printing process lives
------------------
     ethr =  4.10E-03,  avg # of iterations =  4.1

     negative rho (up, down):  6.977E-05 0.000E+00


     -----------------------------------------------
     Non-local corr. energy    =       0.09844834 Ry
     -----------------------------------------------

 
     Adding external electric field

     Computed dipole along edir(3) : 
        Elec. dipole         -0.5119 Ry au,         -1.3012 Debye
        Ion. dipole          -0.5119 Ry au,         -1.3012 Debye
        Dipole               -0.0002 Ry au,         -0.0006 Debye
        Dipole field         -0.0000 Ry au, 
 
        Potential amp.        0.0002 Ry
        Total length         34.0151 bohr
 

     total cpu time spent up to now is        5.2 secs

     total energy              =     -15.10046374 Ry
     estimated scf accuracy    <       0.01916577 Ry

     iteration #  3     ecut=    60.00 Ry     beta= 0.70
     Davidson diagonalization with overlap

---- Real-time Memory Report at c_bands before calling an iterative solver
           139 MiB given to the printing process from OS
            10 MiB allocation reported by mallinfo(arena+hblkhd)
         95933 MiB available memory on the node where the printing process lives
------------------
     ethr =  2.40E-04,  avg # of iterations =  6.3

     negative rho (up, down):  8.214E-05 0.000E+00


     -----------------------------------------------
     Non-local corr. energy    =       0.09944634 Ry
     -----------------------------------------------

 
     Adding external electric field

     Computed dipole along edir(3) : 
        Elec. dipole         -0.5119 Ry au,         -1.3012 Debye
        Ion. dipole          -0.5119 Ry au,         -1.3012 Debye
        Dipole                0.0002 Ry au,          0.0004 Debye
        Dipole field          0.0000 Ry au, 
 
        Potential amp.       -0.0001 Ry
        Total length         34.0151 bohr
 

     total cpu time spent up to now is        6.4 secs

     total energy              =     -15.10395816 Ry
     estimated scf accuracy    <       0.00074467 Ry

     iteration #  4     ecut=    60.00 Ry     beta= 0.70
     Davidson diagonalization with overlap

---- Real-time Memory Report at c_bands before calling an iterative solver
           139 MiB given to the printing process from OS
            10 MiB allocation reported by mallinfo(arena+hblkhd)
         95933 MiB available memory on the node where the printing process lives
------------------
     c_bands:  1 eigenvalues not converged
     c_bands:  1 eigenvalues not converged
     c_bands:  1 eigenvalues not converged
     ethr =  9.31E-06,  avg # of iterations =  7.7

     negative rho (up, down):  8.394E-05 0.000E+00


     -----------------------------------------------
     Non-local corr. energy    =       0.09936778 Ry
     -----------------------------------------------

 
     Adding external electric field

     Computed dipole along edir(3) : 
        Elec. dipole         -0.5119 Ry au,         -1.3012 Debye
        Ion. dipole          -0.5119 Ry au,         -1.3012 Debye
        Dipole               -0.0005 Ry au,         -0.0012 Debye
        Dipole field         -0.0000 Ry au, 
 
        Potential amp.        0.0004 Ry
        Total length         34.0151 bohr
 

     total cpu time spent up to now is        7.7 secs

     total energy              =     -15.10407894 Ry
     estimated scf accuracy    <       0.00000821 Ry

     iteration #  5     ecut=    60.00 Ry     beta= 0.70
     Davidson diagonalization with overlap

---- Real-time Memory Report at c_bands before calling an iterative solver
           139 MiB given to the printing process from OS
            10 MiB allocation reported by mallinfo(arena+hblkhd)
         95933 MiB available memory on the node where the printing process lives
------------------
     c_bands:  1 eigenvalues not converged
     c_bands:  1 eigenvalues not converged
     ethr =  1.03E-07,  avg # of iterations =  3.2

     negative rho (up, down):  8.467E-05 0.000E+00


     -----------------------------------------------
     Non-local corr. energy    =       0.09938202 Ry
     -----------------------------------------------

 
     Adding external electric field

     Computed dipole along edir(3) : 
        Elec. dipole         -0.5119 Ry au,         -1.3012 Debye
        Ion. dipole          -0.5119 Ry au,         -1.3012 Debye
        Dipole                0.0008 Ry au,          0.0019 Debye
        Dipole field          0.0000 Ry au, 
 
        Potential amp.       -0.0006 Ry
        Total length         34.0151 bohr
 

     total cpu time spent up to now is        8.7 secs

     total energy              =     -15.10408204 Ry
     estimated scf accuracy    <       0.00000071 Ry

     iteration #  6     ecut=    60.00 Ry     beta= 0.70
     Davidson diagonalization with overlap

---- Real-time Memory Report at c_bands before calling an iterative solver
           139 MiB given to the printing process from OS
            10 MiB allocation reported by mallinfo(arena+hblkhd)
         95930 MiB available memory on the node where the printing process lives
------------------
     ethr =  8.91E-09,  avg # of iterations =  2.1

     negative rho (up, down):  8.481E-05 0.000E+00


     -----------------------------------------------
     Non-local corr. energy    =       0.09938444 Ry
     -----------------------------------------------

 
     Adding external electric field

     Computed dipole along edir(3) : 
        Elec. dipole         -0.5119 Ry au,         -1.3012 Debye
        Ion. dipole          -0.5119 Ry au,         -1.3012 Debye
        Dipole               -0.0001 Ry au,         -0.0002 Debye
        Dipole field         -0.0000 Ry au, 
 
        Potential amp.        0.0001 Ry
        Total length         34.0151 bohr
 

     total cpu time spent up to now is        9.5 secs

     total energy              =     -15.10408214 Ry
     estimated scf accuracy    <       0.00000091 Ry

     iteration #  7     ecut=    60.00 Ry     beta= 0.70
     Davidson diagonalization with overlap

---- Real-time Memory Report at c_bands before calling an iterative solver
           139 MiB given to the printing process from OS
            10 MiB allocation reported by mallinfo(arena+hblkhd)
         95930 MiB available memory on the node where the printing process lives
------------------
     ethr =  8.91E-09,  avg # of iterations =  1.9

     negative rho (up, down):  8.487E-05 0.000E+00


     -----------------------------------------------
     Non-local corr. energy    =       0.09938404 Ry
     -----------------------------------------------

 
     Adding external electric field

     Computed dipole along edir(3) : 
        Elec. dipole         -0.5119 Ry au,         -1.3012 Debye
        Ion. dipole          -0.5119 Ry au,         -1.3012 Debye
        Dipole               -0.0000 Ry au,         -0.0000 Debye
        Dipole field         -0.0000 Ry au, 
 
        Potential amp.        0.0000 Ry
        Total length         34.0151 bohr
 

     total cpu time spent up to now is       10.3 secs

     total energy              =     -15.10408232 Ry
     estimated scf accuracy    <       0.00000001 Ry

     iteration #  8     ecut=    60.00 Ry     beta= 0.70
     Davidson diagonalization with overlap

---- Real-time Memory Report at c_bands before calling an iterative solver
           139 MiB given to the printing process from OS
            10 MiB allocation reported by mallinfo(arena+hblkhd)
         95928 MiB available memory on the node where the printing process lives
------------------
     ethr =  1.62E-10,  avg # of iterations =  2.0

     negative rho (up, down):  8.486E-05 0.000E+00


     -----------------------------------------------
     Non-local corr. energy    =       0.09938433 Ry
     -----------------------------------------------

 
     Adding external electric field

     Computed dipole along edir(3) : 
        Elec. dipole         -0.5119 Ry au,         -1.3012 Debye
        Ion. dipole          -0.5119 Ry au,         -1.3012 Debye
        Dipole                0.0000 Ry au,          0.0001 Debye
        Dipole field          0.0000 Ry au, 
 
        Potential amp.       -0.0000 Ry
        Total length         34.0151 bohr
 

     total cpu time spent up to now is       11.1 secs

     End of self-consistent calculation

          k = 0.0000 0.0000 0.0000 (  8359 PWs)   bands (ev):

   -15.4416  -9.7627  -3.9957  -1.6182  -0.3113   0.7744   1.3021   2.2010

     occupation numbers 
     1.0000   1.0000   1.0000   0.0000   0.0000   0.0000   0.0000   0.0000

          k = 0.0003 0.0712 0.0000 (  8359 PWs)   bands (ev):

   -15.3859  -9.6963  -4.2199  -1.7583  -0.2446   0.8553   1.3846   2.2831

     occupation numbers 
     1.0000   1.0000   1.0000   0.0000   0.0000   0.0000   0.0000   0.0000

          k = 0.0005 0.1424 0.0000 (  8387 PWs)   bands (ev):

   -15.2200  -9.4985  -4.8300  -2.1161  -0.0362   1.0961   1.6324   2.5265

     occupation numbers 
     1.0000   1.0000   1.0000   0.2765   0.0000   0.0000   0.0000   0.0000

          k = 0.0008 0.2135 0.0000 (  8386 PWs)   bands (ev):

   -14.9490  -9.1747  -5.6883  -2.5702   0.3224   1.4748   2.0459   2.4992

     occupation numbers 
     1.0000   1.0000   1.0000   1.0000   0.0000   0.0000   0.0000   0.0000

          k = 0.0010 0.2847 0.0000 (  8426 PWs)   bands (ev):

   -14.5832  -8.7361  -6.6598  -3.0225   0.8262   0.9733   2.1392   2.6230

     occupation numbers 
     1.0000   1.0000   1.0000   1.0000   0.0000   0.0000   0.0000   0.0000

          k = 0.0013 0.3559 0.0000 (  8442 PWs)   bands (ev):

   -14.1429  -8.2056  -7.6367  -3.4132  -0.3408   1.4538   2.8451   3.3475

     occupation numbers 
     1.0000   1.0000   1.0000   1.0000   0.0000   0.0000   0.0000   0.0000

          k = 0.0015 0.4271 0.0000 (  8424 PWs)   bands (ev):

   -13.6714  -8.5219  -7.6323  -3.7092  -1.4982   2.1407   3.7296   3.8805

     occupation numbers 
     1.0000   1.0000   1.0000   1.0000   0.0000   0.0000   0.0000   0.0000

          k = 0.0018 0.4982 0.0000 (  8472 PWs)   bands (ev):

   -13.2628  -9.1896  -7.1286  -3.8927  -2.3577   2.6876   4.1796   4.7639

     occupation numbers 
     1.0000   1.0000   1.0000   1.0000   0.9724   0.0000   0.0000   0.0000

          k =-0.0020-0.5694 0.0000 (  8472 PWs)   bands (ev):

   -13.0878  -9.4527  -6.9096  -3.9547  -2.6961   2.8628   4.7245   5.2424

     occupation numbers 
     1.0000   1.0000   1.0000   1.0000   1.0000   0.0000   0.0000   0.0000

          k = 0.0624-0.0358 0.0000 (  8382 PWs)   bands (ev):

   -15.3859  -9.7056  -4.1546  -1.8414  -0.2360   0.8559   1.3871   2.2843

     occupation numbers 
     1.0000   1.0000   1.0000   0.0003   0.0000   0.0000   0.0000   0.0000

          k = 0.0626 0.0354 0.0000 (  8382 PWs)   bands (ev):

   -15.3859  -9.7056  -4.1547  -1.8413  -0.2360   0.8559   1.3871   2.2843

     occupation numbers 
     1.0000   1.0000   1.0000   0.0003   0.0000   0.0000   0.0000   0.0000

          k = 0.0629 0.1065 0.0000 (  8380 PWs)   bands (ev):

   -15.2752  -9.5740  -4.5755  -2.0859  -0.0988   1.0166   1.5522   2.4474

     occupation numbers 
     1.0000   1.0000   1.0000   0.1821   0.0000   0.0000   0.0000   0.0000

          k = 0.0631 0.1777 0.0000 (  8393 PWs)   bands (ev):

   -15.0569  -9.3142  -5.3030  -2.5035   0.1858   1.3306   1.8831   2.7492

     occupation numbers 
     1.0000   1.0000   1.0000   0.9997   0.0000   0.0000   0.0000   0.0000

          k = 0.0634 0.2489 0.0000 (  8408 PWs)   bands (ev):

   -14.7383  -8.9343  -6.2021  -2.9817   0.6204   1.5355   2.0206   2.3794

     occupation numbers 
     1.0000   1.0000   1.0000   1.0000   0.0000   0.0000   0.0000   0.0000

          k = 0.0636 0.3201 0.0000 (  8423 PWs)   bands (ev):

   -14.3342  -8.4507  -7.1606  -3.4289   0.3037   1.1943   2.5277   3.0370

     occupation numbers 
     1.0000   1.0000   1.0000   1.0000   0.0000   0.0000   0.0000   0.0000

          k = 0.0639 0.3912 0.0000 (  8440 PWs)   bands (ev):

   -13.8743  -8.0826  -7.8969  -3.7922  -0.9255   1.8757   3.3260   3.8163

     occupation numbers 
     1.0000   1.0000   1.0000   1.0000   0.0000   0.0000   0.0000   0.0000

          k = 0.0642 0.4624 0.0000 (  8447 PWs)   bands (ev):

   -13.4226  -8.8625  -7.3477  -4.0446  -1.9362   2.5662   4.2058   4.2821

     occupation numbers 
     1.0000   1.0000   1.0000   1.0000   0.0069   0.0000   0.0000   0.0000

          k = 0.0603-0.6052 0.0000 (  8469 PWs)   bands (ev):

   -13.1112  -9.3435  -6.9642  -4.1734  -2.5530   3.0032   4.6424   5.3570

     occupation numbers 
     1.0000   1.0000   1.0000   1.0000   1.0000   0.0000   0.0000   0.0000

          k = 0.0606-0.5340 0.0000 (  8467 PWs)   bands (ev):

   -13.1111  -9.3435  -6.9642  -4.1734  -2.5530   3.0032   4.6425   5.6118

     occupation numbers 
     1.0000   1.0000   1.0000   1.0000   1.0000   0.0000   0.0000   0.0000

          k = 0.0608-0.4629 0.0000 (  8449 PWs)   bands (ev):

   -13.4225  -8.8625  -7.3477  -4.0447  -1.9361   2.5662   4.2058   4.2821

     occupation numbers 
     1.0000   1.0000   1.0000   1.0000   0.0069   0.0000   0.0000   0.0000

          k = 0.0611-0.3917 0.0000 (  8440 PWs)   bands (ev):

   -13.8743  -8.0826  -7.8969  -3.7923  -0.9254   1.8757   3.3260   3.8159

     occupation numbers 
     1.0000   1.0000   1.0000   1.0000   0.0000   0.0000   0.0000   0.0000

          k = 0.0614-0.3205 0.0000 (  8423 PWs)   bands (ev):

   -14.3342  -8.4507  -7.1605  -3.4290   0.3039   1.1943   2.5277   3.0372

     occupation numbers 
     1.0000   1.0000   1.0000   1.0000   0.0000   0.0000   0.0000   0.0000

          k = 0.0616-0.2493 0.0000 (  8408 PWs)   bands (ev):

   -14.7383  -8.9343  -6.2020  -2.9819   0.6205   1.5356   2.0207   2.3794

     occupation numbers 
     1.0000   1.0000   1.0000   1.0000   0.0000   0.0000   0.0000   0.0000

          k = 0.0619-0.1782 0.0000 (  8393 PWs)   bands (ev):

   -15.0569  -9.3142  -5.3028  -2.5038   0.1858   1.3306   1.8831   2.7494

     occupation numbers 
     1.0000   1.0000   1.0000   0.9997   0.0000   0.0000   0.0000   0.0000

          k = 0.0621-0.1070 0.0000 (  8380 PWs)   bands (ev):

   -15.2752  -9.5740  -4.5752  -2.0862  -0.0988   1.0166   1.5522   2.4472

     occupation numbers 
     1.0000   1.0000   1.0000   0.1829   0.0000   0.0000   0.0000   0.0000

          k = 0.1247-0.0716 0.0000 (  8377 PWs)   bands (ev):

   -15.2206  -9.5373  -4.6038  -2.4038  -0.0069   1.0984   1.6420   2.5324

     occupation numbers 
     1.0000   1.0000   1.0000   0.9917   0.0000   0.0000   0.0000   0.0000

          k = 0.1250-0.0005 0.0000 (  8379 PWs)   bands (ev):

   -15.2754  -9.6019  -4.3926  -2.3184  -0.0766   1.0189   1.5593   2.4519

     occupation numbers 
     1.0000   1.0000   1.0000   0.9343   0.0000   0.0000   0.0000   0.0000

          k = 0.1253 0.0707 0.0000 (  8377 PWs)   bands (ev):

   -15.2206  -9.5373  -4.6041  -2.4033  -0.0069   1.0984   1.6420   2.5324

     occupation numbers 
     1.0000   1.0000   1.0000   0.9916   0.0000   0.0000   0.0000   0.0000

          k = 0.1255 0.1419 0.0000 (  8404 PWs)   bands (ev):

   -15.0577  -9.3454  -5.1545  -2.6921   0.2059   1.3324   1.8902   2.7653

     occupation numbers 
     1.0000   1.0000   1.0000   1.0000   0.0000   0.0000   0.0000   0.0000

          k = 0.1258 0.2131 0.0000 (  8414 PWs)   bands (ev):

   -14.7921  -9.0322  -5.9054  -3.1572   0.5686   1.6585   2.3045   2.4007

     occupation numbers 
     1.0000   1.0000   1.0000   1.0000   0.0000   0.0000   0.0000   0.0000

          k = 0.1260 0.2842 0.0000 (  8424 PWs)   bands (ev):

   -14.4347  -8.6101  -6.7569  -3.6762   0.9092   1.0795   2.3903   2.8839

     occupation numbers 
     1.0000   1.0000   1.0000   1.0000   0.0000   0.0000   0.0000   0.0000

          k = 0.1263 0.3554 0.0000 (  8456 PWs)   bands (ev):

   -14.0072  -8.1039  -7.6292  -4.1406  -0.3048   1.7232   3.0865   3.6235

     occupation numbers 
     1.0000   1.0000   1.0000   1.0000   0.0000   0.0000   0.0000   0.0000

          k = 0.1265 0.4266 0.0000 (  8453 PWs)   bands (ev):

   -13.5538  -8.4335  -7.5648  -4.4930  -1.3747   2.4595   3.9506   4.4741

     occupation numbers 
     1.0000   1.0000   1.0000   1.0000   0.0000   0.0000   0.0000   0.0000

          k = 0.1227-0.6410 0.0000 (  8479 PWs)   bands (ev):

   -13.1669  -9.0442  -7.1022  -4.7096  -2.1622   3.1603   4.9129   4.9348

     occupation numbers 
     1.0000   1.0000   1.0000   1.0000   0.4544   0.0000   0.0000   0.0000

          k = 0.1230-0.5699 0.0000 (  8463 PWs)   bands (ev):

   -13.0037  -9.2842  -6.9061  -4.7825  -2.4676   3.4806   5.4133   5.4630

     occupation numbers 
     1.0000   1.0000   1.0000   1.0000   0.9989   0.0000   0.0000   0.0000

          k = 0.1232-0.4987 0.0000 (  8479 PWs)   bands (ev):

   -13.1668  -9.0442  -7.1022  -4.7097  -2.1621   3.1602   4.9129   4.9348

     occupation numbers 
     1.0000   1.0000   1.0000   1.0000   0.4541   0.0000   0.0000   0.0000

          k = 0.1235-0.4275 0.0000 (  8453 PWs)   bands (ev):

   -13.5537  -8.4334  -7.5648  -4.4931  -1.3745   2.4596   3.9506   4.4742

     occupation numbers 
     1.0000   1.0000   1.0000   1.0000   0.0000   0.0000   0.0000   0.0000

          k = 0.1237-0.3563 0.0000 (  8456 PWs)   bands (ev):

   -14.0071  -8.1039  -7.6291  -4.1408  -0.3046   1.7232   3.0865   3.6236

     occupation numbers 
     1.0000   1.0000   1.0000   1.0000   0.0000   0.0000   0.0000   0.0000

          k = 0.1240-0.2852 0.0000 (  8424 PWs)   bands (ev):

   -14.4347  -8.6101  -6.7567  -3.6766   0.9095   1.0795   2.3904   2.8840

     occupation numbers 
     1.0000   1.0000   1.0000   1.0000   0.0000   0.0000   0.0000   0.0000

          k = 0.1242-0.2140 0.0000 (  8414 PWs)   bands (ev):

   -14.7921  -9.0322  -5.9050  -3.1577   0.5687   1.6586   2.3045   2.4010

     occupation numbers 
     1.0000   1.0000   1.0000   1.0000   0.0000   0.0000   0.0000   0.0000

          k = 0.1245-0.1428 0.0000 (  8406 PWs)   bands (ev):

   -15.0577  -9.3454  -5.1541  -2.6928   0.2059   1.3324   1.8902   2.7655

     occupation numbers 
     1.0000   1.0000   1.0000   1.0000   0.0000   0.0000   0.0000   0.0000

          k = 0.1871-0.1074 0.0000 (  8413 PWs)   bands (ev):

   -14.9520  -9.2679  -5.2832  -3.0896   0.3798   1.4913   2.0672   2.9306

     occupation numbers 
     1.0000   1.0000   1.0000   1.0000   0.0000   0.0000   0.0000   0.0000

          k = 0.1874-0.0363 0.0000 (  8392 PWs)   bands (ev):

   -15.0586  -9.3912  -4.8935  -3.0205   0.2361   1.3411   1.9015   2.7829

     occupation numbers 
     1.0000   1.0000   1.0000   1.0000   0.0000   0.0000   0.0000   0.0000

          k = 0.1876 0.0349 0.0000 (  8392 PWs)   bands (ev):

   -15.0586  -9.3912  -4.8938  -3.0201   0.2361   1.3411   1.9015   2.7830

     occupation numbers 
     1.0000   1.0000   1.0000   1.0000   0.0000   0.0000   0.0000   0.0000

          k = 0.1879 0.1061 0.0000 (  8413 PWs)   bands (ev):

   -14.9521  -9.2679  -5.2839  -3.0887   0.3797   1.4913   2.0672   2.9306

     occupation numbers 
     1.0000   1.0000   1.0000   1.0000   0.0000   0.0000   0.0000   0.0000

          k = 0.1881 0.1773 0.0000 (  8427 PWs)   bands (ev):

   -14.7427  -9.0255  -5.8844  -3.3880   0.6692   1.7464   2.3985   2.7503

     occupation numbers 
     1.0000   1.0000   1.0000   1.0000   0.0000   0.0000   0.0000   0.0000

          k = 0.1884 0.2484 0.0000 (  8431 PWs)   bands (ev):

   -14.4391  -8.6742  -6.5754  -3.9024   1.1080   1.3459   2.4513   2.8959

     occupation numbers 
     1.0000   1.0000   1.0000   1.0000   0.0000   0.0000   0.0000   0.0000

          k = 0.1886 0.3196 0.0000 (  8455 PWs)   bands (ev):

   -14.0580  -8.2335  -7.3022  -4.4776   0.2543   1.6903   3.0228   3.5582

     occupation numbers 
     1.0000   1.0000   1.0000   1.0000   0.0000   0.0000   0.0000   0.0000

          k = 0.1889 0.3908 0.0000 (  8459 PWs)   bands (ev):

   -13.6319  -8.0172  -7.7411  -4.9766  -0.7763   2.3949   3.7846   4.3790

     occupation numbers 
     1.0000   1.0000   1.0000   1.0000   0.0000   0.0000   0.0000   0.0000

          k = 0.1851-0.6768 0.0000 (  8469 PWs)   bands (ev):

   -13.2251  -8.6368  -7.2720  -5.3276  -1.6162   3.1647   4.6445   5.2914

     occupation numbers 
     1.0000   1.0000   1.0000   1.0000   0.0000   0.0000   0.0000   0.0000

          k = 0.1853-0.6057 0.0000 (  8481 PWs)   bands (ev):

   -12.9549  -9.0208  -6.9613  -5.5058  -2.1154   3.8020   5.3634   5.6741

     occupation numbers 
     1.0000   1.0000   1.0000   1.0000   0.2739   0.0000   0.0000   0.0000

          k = 0.1856-0.5345 0.0000 (  8481 PWs)   bands (ev):

   -12.9548  -9.0208  -6.9613  -5.5058  -2.1153   3.8020   5.3633   5.6744

     occupation numbers 
     1.0000   1.0000   1.0000   1.0000   0.2736   0.0000   0.0000   0.0000

          k = 0.1858-0.4633 0.0000 (  8469 PWs)   bands (ev):

   -13.2250  -8.6367  -7.2720  -5.3278  -1.6160   3.1647   4.6445   5.2916

     occupation numbers 
     1.0000   1.0000   1.0000   1.0000   0.0000   0.0000   0.0000   0.0000

          k = 0.1861-0.3921 0.0000 (  8459 PWs)   bands (ev):

   -13.6319  -8.0170  -7.7411  -4.9769  -0.7760   2.3950   3.7846   4.3791

     occupation numbers 
     1.0000   1.0000   1.0000   1.0000   0.0000   0.0000   0.0000   0.0000

          k = 0.1863-0.3210 0.0000 (  8455 PWs)   bands (ev):

   -14.0580  -8.2335  -7.3019  -4.4781   0.2548   1.6904   3.0229   3.5583

     occupation numbers 
     1.0000   1.0000   1.0000   1.0000   0.0000   0.0000   0.0000   0.0000

          k = 0.1866-0.2498 0.0000 (  8431 PWs)   bands (ev):

   -14.4390  -8.6742  -6.5749  -3.9031   1.1081   1.3464   2.4514   2.8960

     occupation numbers 
     1.0000   1.0000   1.0000   1.0000   0.0000   0.0000   0.0000   0.0000

          k = 0.1869-0.1786 0.0000 (  8427 PWs)   bands (ev):

   -14.7426  -9.0255  -5.8837  -3.3889   0.6693   1.7465   2.3986   2.7508

     occupation numbers 
     1.0000   1.0000   1.0000   1.0000   0.0000   0.0000   0.0000   0.0000

          k = 0.2495-0.1433 0.0000 (  8451 PWs)   bands (ev):

   -14.5931  -8.9168  -6.1185  -3.7265   0.9225   1.9428   2.6623   2.8959

     occupation numbers 
     1.0000   1.0000   1.0000   1.0000   0.0000   0.0000   0.0000   0.0000

          k = 0.2497-0.0721 0.0000 (  8434 PWs)   bands (ev):

   -14.7446  -9.0874  -5.6106  -3.7299   0.7040   1.8051   2.4137   3.2469

     occupation numbers 
     1.0000   1.0000   1.0000   1.0000   0.0000   0.0000   0.0000   0.0000

          k = 0.2500-0.0009 0.0000 (  8427 PWs)   bands (ev):

   -14.7959  -9.1450  -5.3781  -3.8069   0.6306   1.7395   2.3308   3.1955

     occupation numbers 
     1.0000   1.0000   1.0000   1.0000   0.0000   0.0000   0.0000   0.0000

          k = 0.2503 0.0703 0.0000 (  8432 PWs)   bands (ev):

   -14.7447  -9.0874  -5.6113  -3.7290   0.7039   1.8051   2.4137   3.2466

     occupation numbers 
     1.0000   1.0000   1.0000   1.0000   0.0000   0.0000   0.0000   0.0000

          k = 0.2505 0.1414 0.0000 (  8451 PWs)   bands (ev):

   -14.5931  -8.9168  -6.1193  -3.7253   0.9224   1.9427   2.6622   2.8952

     occupation numbers 
     1.0000   1.0000   1.0000   1.0000   0.0000   0.0000   0.0000   0.0000

          k = 0.2508 0.2126 0.0000 (  8442 PWs)   bands (ev):

   -14.3482  -8.6417  -6.6976  -4.0239   1.2858   1.5434   2.6750   3.0761

     occupation numbers 
     1.0000   1.0000   1.0000   1.0000   0.0000   0.0000   0.0000   0.0000

          k = 0.2510 0.2838 0.0000 (  8443 PWs)   bands (ev):

   -14.0239  -8.2786  -7.2678  -4.5830   0.6304   1.7944   3.1411   3.6559

     occupation numbers 
     1.0000   1.0000   1.0000   1.0000   0.0000   0.0000   0.0000   0.0000

          k = 0.2513 0.3550 0.0000 (  8463 PWs)   bands (ev):

   -13.6459  -7.8574  -7.8025  -5.2233  -0.2640   2.4366   3.8006   4.3996

     occupation numbers 
     1.0000   1.0000   1.0000   1.0000   0.0000   0.0000   0.0000   0.0000

          k = 0.2474-0.7127 0.0000 (  8458 PWs)   bands (ev):

   -13.2617  -8.2793  -7.4320  -5.7776  -1.0349   3.1769   4.5140   5.2925

     occupation numbers 
     1.0000   1.0000   1.0000   1.0000   0.0000   0.0000   0.0000   0.0000

          k = 0.2477-0.6415 0.0000 (  8480 PWs)   bands (ev):

   -12.9533  -8.6399  -7.0934  -6.1401  -1.5835   3.9115   4.9348   6.0637

     occupation numbers 
     1.0000   1.0000   1.0000   1.0000   0.0000   0.0000   0.0000   0.0000

          k = 0.2480-0.5703 0.0000 (  8471 PWs)   bands (ev):

   -12.8304  -8.7807  -6.9595  -6.2644  -1.7878   4.2923   4.9830   6.0821

     occupation numbers 
     1.0000   1.0000   1.0000   1.0000   0.0000   0.0000   0.0000   0.0000

          k = 0.2482-0.4991 0.0000 (  8480 PWs)   bands (ev):

   -12.9532  -8.6398  -7.0934  -6.1403  -1.5833   3.9116   4.9347   6.0640

     occupation numbers 
     1.0000   1.0000   1.0000   1.0000   0.0000   0.0000   0.0000   0.0000

          k = 0.2485-0.4280 0.0000 (  8458 PWs)   bands (ev):

   -13.2616  -8.2790  -7.4321  -5.7781  -1.0346   3.1771   4.5140   5.2927

     occupation numbers 
     1.0000   1.0000   1.0000   1.0000   0.0000   0.0000   0.0000   0.0000

          k = 0.2487-0.3568 0.0000 (  8463 PWs)   bands (ev):

   -13.6458  -7.8574  -7.8020  -5.2240  -0.2635   2.4367   3.8007   4.3995

     occupation numbers 
     1.0000   1.0000   1.0000   1.0000   0.0000   0.0000   0.0000   0.0000

          k = 0.2490-0.2856 0.0000 (  8443 PWs)   bands (ev):

   -14.0237  -8.2786  -7.2671  -4.5839   0.6311   1.7945   3.1412   3.6562

     occupation numbers 
     1.0000   1.0000   1.0000   1.0000   0.0000   0.0000   0.0000   0.0000

          k = 0.2492-0.2144 0.0000 (  8442 PWs)   bands (ev):

   -14.3481  -8.6418  -6.6969  -4.0250   1.2859   1.5441   2.6752   3.0762

     occupation numbers 
     1.0000   1.0000   1.0000   1.0000   0.0000   0.0000   0.0000   0.0000

          k = 0.3119-0.1791 0.0000 (  8445 PWs)   bands (ev):

   -14.1687  -8.5185  -7.0094  -4.2358   1.5434   1.6141   2.9969   3.4254

     occupation numbers 
     1.0000   1.0000   1.0000   1.0000   0.0000   0.0000   0.0000   0.0000

          k = 0.3121-0.1079 0.0000 (  8458 PWs)   bands (ev):

   -14.3518  -8.7152  -6.4711  -4.3075   1.3237   2.1731   2.9178   3.0957

     occupation numbers 
     1.0000   1.0000   1.0000   1.0000   0.0000   0.0000   0.0000   0.0000

          k = 0.3124-0.0367 0.0000 (  8442 PWs)   bands (ev):

   -14.4462  -8.8168  -6.0307  -4.5572   1.1763   2.2637   2.9297   3.4184

     occupation numbers 
     1.0000   1.0000   1.0000   1.0000   0.0000   0.0000   0.0000   0.0000

          k = 0.3126 0.0345 0.0000 (  8442 PWs)   bands (ev):

   -14.4462  -8.8168  -6.0312  -4.5566   1.1762   2.2637   2.9297   3.4179

     occupation numbers 
     1.0000   1.0000   1.0000   1.0000   0.0000   0.0000   0.0000   0.0000

          k = 0.3129 0.1056 0.0000 (  8458 PWs)   bands (ev):

   -14.3519  -8.7152  -6.4719  -4.3064   1.3236   2.1728   2.9173   3.0958

     occupation numbers 
     1.0000   1.0000   1.0000   1.0000   0.0000   0.0000   0.0000   0.0000

          k = 0.3131 0.1768 0.0000 (  8441 PWs)   bands (ev):

   -14.1688  -8.5184  -7.0103  -4.2345   1.5426   1.6139   2.9966   3.4256

     occupation numbers 
     1.0000   1.0000   1.0000   1.0000   0.0000   0.0000   0.0000   0.0000

          k = 0.3134 0.2480 0.0000 (  8462 PWs)   bands (ev):

   -13.9095  -8.2410  -7.5080  -4.5247   0.7644   2.0434   3.4228   3.9110

     occupation numbers 
     1.0000   1.0000   1.0000   1.0000   0.0000   0.0000   0.0000   0.0000

          k = 0.3136 0.3192 0.0000 (  8449 PWs)   bands (ev):

   -13.5966  -7.9133  -7.9081  -5.1103   0.0505   2.6077   4.0070   4.5688

     occupation numbers 
     1.0000   1.0000   1.0000   1.0000   0.0000   0.0000   0.0000   0.0000

          k = 0.3098-0.7485 0.0000 (  8476 PWs)   bands (ev):

   -13.2680  -8.1993  -7.5605  -5.8074  -0.5518   3.2802   4.5992   5.3914

     occupation numbers 
     1.0000   1.0000   1.0000   1.0000   0.0000   0.0000   0.0000   0.0000

          k = 0.3101-0.6773 0.0000 (  8481 PWs)   bands (ev):

   -12.9816  -8.3548  -7.2590  -6.4350  -1.0033   3.9821   4.6828   6.1963

     occupation numbers 
     1.0000   1.0000   1.0000   1.0000   0.0000   0.0000   0.0000   0.0000

          k = 0.3103-0.6061 0.0000 (  8492 PWs)   bands (ev):

   -12.8101  -8.4023  -7.0788  -6.8231  -1.2517   4.4847   4.5016   6.4185

     occupation numbers 
     1.0000   1.0000   1.0000   1.0000   0.0000   0.0000   0.0000   0.0000

          k = 0.3106-0.5349 0.0000 (  8492 PWs)   bands (ev):

   -12.8101  -8.4021  -7.0788  -6.8234  -1.2516   4.4846   4.5016   6.4188

     occupation numbers 
     1.0000   1.0000   1.0000   1.0000   0.0000   0.0000   0.0000   0.0000

          k = 0.3108-0.4638 0.0000 (  8481 PWs)   bands (ev):

   -12.9815  -8.3543  -7.2590  -6.4356  -1.0029   3.9823   4.6824   6.1966

     occupation numbers 
     1.0000   1.0000   1.0000   1.0000   0.0000   0.0000   0.0000   0.0000

          k = 0.3111-0.3926 0.0000 (  8476 PWs)   bands (ev):

   -13.2678  -8.1987  -7.5605  -5.8083  -0.5512   3.2803   4.5991   5.3914

     occupation numbers 
     1.0000   1.0000   1.0000   1.0000   0.0000   0.0000   0.0000   0.0000

          k = 0.3113-0.3214 0.0000 (  8449 PWs)   bands (ev):

   -13.5964  -7.9127  -7.9081  -5.1113   0.0513   2.6078   4.0071   4.5688

     occupation numbers 
     1.0000   1.0000   1.0000   1.0000   0.0000   0.0000   0.0000   0.0000

          k = 0.3116-0.2502 0.0000 (  8464 PWs)   bands (ev):

   -13.9094  -8.2410  -7.5072  -4.5259   0.7653   2.0436   3.4230   3.9113

     occupation numbers 
     1.0000   1.0000   1.0000   1.0000   0.0000   0.0000   0.0000   0.0000

          k = 0.3742-0.2149 0.0000 (  8460 PWs)   bands (ev):

   -13.7279  -8.1292  -7.8337  -4.5992   0.7062   2.4364   3.7119   3.8356

     occupation numbers 
     1.0000   1.0000   1.0000   1.0000   0.0000   0.0000   0.0000   0.0000

          k = 0.3745-0.1437 0.0000 (  8455 PWs)   bands (ev):

   -13.9150  -8.3164  -7.3503  -4.7225   1.3855   2.0843   3.4170   3.9450

     occupation numbers 
     1.0000   1.0000   1.0000   1.0000   0.0000   0.0000   0.0000   0.0000

          k = 0.3747-0.0725 0.0000 (  8458 PWs)   bands (ev):

   -14.0351  -8.4368  -6.8209  -5.1126   1.8664   2.1103   3.1057   3.6978

     occupation numbers 
     1.0000   1.0000   1.0000   1.0000   0.0000   0.0000   0.0000   0.0000

          k = 0.3750-0.0014 0.0000 (  8461 PWs)   bands (ev):

   -14.0763  -8.4783  -6.5089  -5.3942   1.7928   2.6178   2.8450   3.6148

     occupation numbers 
     1.0000   1.0000   1.0000   1.0000   0.0000   0.0000   0.0000   0.0000

          k = 0.3753 0.0698 0.0000 (  8458 PWs)   bands (ev):

   -14.0351  -8.4368  -6.8217  -5.1117   1.8663   2.1096   3.1056   3.6977

     occupation numbers 
     1.0000   1.0000   1.0000   1.0000   0.0000   0.0000   0.0000   0.0000

          k = 0.3755 0.1410 0.0000 (  8455 PWs)   bands (ev):

   -13.9151  -8.3164  -7.3511  -4.7212   1.3846   2.0842   3.4168   3.9448

     occupation numbers 
     1.0000   1.0000   1.0000   1.0000   0.0000   0.0000   0.0000   0.0000

          k = 0.3758 0.2122 0.0000 (  8460 PWs)   bands (ev):

   -13.7280  -8.1292  -7.8344  -4.5979   0.7052   2.4362   3.7132   3.8354

     occupation numbers 
     1.0000   1.0000   1.0000   1.0000   0.0000   0.0000   0.0000   0.0000

          k = 0.3760 0.2833 0.0000 (  8462 PWs)   bands (ev):

   -13.4954  -8.1947  -7.8967  -4.8691   0.1480   2.9089   3.9372   4.3779

     occupation numbers 
     1.0000   1.0000   1.0000   1.0000   0.0000   0.0000   0.0000   0.0000

          k = 0.3722-0.7843 0.0000 (  8450 PWs)   bands (ev):

   -13.2502  -8.3872  -7.6502  -5.4563  -0.2595   3.4830   4.6851   4.9386

     occupation numbers 
     1.0000   1.0000   1.0000   1.0000   0.0000   0.0000   0.0000   0.0000

          k = 0.3724-0.7131 0.0000 (  8479 PWs)   bands (ev):

   -13.0340  -8.3803  -7.4291  -6.1830  -0.5152   4.0675   4.7859   5.7273

     occupation numbers 
     1.0000   1.0000   1.0000   1.0000   0.0000   0.0000   0.0000   0.0000

          k = 0.3727-0.6419 0.0000 (  8482 PWs)   bands (ev):

   -12.8872  -8.1737  -7.2748  -6.8823  -0.6414   4.2622   4.4634   6.2460

     occupation numbers 
     1.0000   1.0000   1.0000   1.0000   0.0000   0.0000   0.0000   0.0000

          k = 0.3730-0.5708 0.0000 (  8467 PWs)   bands (ev):

   -12.8356  -7.9495  -7.2799  -7.2193  -0.6764   4.0552   4.5761   6.7701

     occupation numbers 
     1.0000   1.0000   1.0000   1.0000   0.0000   0.0000   0.0000   0.0000

          k = 0.3732-0.4996 0.0000 (  8482 PWs)   bands (ev):

   -12.8871  -8.1730  -7.2748  -6.8830  -0.6410   4.2618   4.4635   6.2464

     occupation numbers 
     1.0000   1.0000   1.0000   1.0000   0.0000   0.0000   0.0000   0.0000

          k = 0.3735-0.4284 0.0000 (  8479 PWs)   bands (ev):

   -13.0339  -8.3796  -7.4292  -6.1839  -0.5145   4.0677   4.7854   5.7258

     occupation numbers 
     1.0000   1.0000   1.0000   1.0000   0.0000   0.0000   0.0000   0.0000

          k = 0.3737-0.3572 0.0000 (  8450 PWs)   bands (ev):

   -13.2500  -8.3865  -7.6502  -5.4574  -0.2586   3.4832   4.6837   4.9386

     occupation numbers 
     1.0000   1.0000   1.0000   1.0000   0.0000   0.0000   0.0000   0.0000

          k = 0.3740-0.2861 0.0000 (  8462 PWs)   bands (ev):

   -13.4953  -8.1939  -7.8967  -4.8703   0.1489   2.9091   3.9359   4.3780

     occupation numbers 
     1.0000   1.0000   1.0000   1.0000   0.0000   0.0000   0.0000   0.0000

          k = 0.4366-0.2507 0.0000 (  8447 PWs)   bands (ev):

   -13.3636  -8.4464  -7.8322  -4.8164   0.1053   3.3229   3.6000   4.8690

     occupation numbers 
     1.0000   1.0000   1.0000   1.0000   0.0000   0.0000   0.0000   0.0000

          k = 0.4369-0.1795 0.0000 (  8464 PWs)   bands (ev):

   -13.5014  -8.1028  -7.9569  -4.9830   0.5333   2.9543   3.9468   4.3355

     occupation numbers 
     1.0000   1.0000   1.0000   1.0000   0.0000   0.0000   0.0000   0.0000

          k = 0.4371-0.1083 0.0000 (  8480 PWs)   bands (ev):

   -13.6108  -8.0543  -7.6161  -5.4578   1.0903   2.6809   3.8682   4.6326

     occupation numbers 
     1.0000   1.0000   1.0000   1.0000   0.0000   0.0000   0.0000   0.0000

          k = 0.4374-0.0372 0.0000 (  8486 PWs)   bands (ev):

   -13.6708  -8.1075  -7.0998  -6.0059   1.6002   2.5399   3.4649   4.9171

     occupation numbers 
     1.0000   1.0000   1.0000   1.0000   0.0000   0.0000   0.0000   0.0000

          k = 0.4376 0.0340 0.0000 (  8484 PWs)   bands (ev):

   -13.6708  -8.1074  -7.1004  -6.0052   1.5998   2.5398   3.4650   4.4670

     occupation numbers 
     1.0000   1.0000   1.0000   1.0000   0.0000   0.0000   0.0000   0.0000

          k = 0.4379 0.1052 0.0000 (  8480 PWs)   bands (ev):

   -13.6109  -8.0543  -7.6169  -5.4567   1.0894   2.6808   3.8683   4.6324

     occupation numbers 
     1.0000   1.0000   1.0000   1.0000   0.0000   0.0000   0.0000   0.0000

          k = 0.4381 0.1764 0.0000 (  8462 PWs)   bands (ev):

   -13.5016  -8.1035  -7.9569  -4.9818   0.5324   2.9542   3.9480   4.3353

     occupation numbers 
     1.0000   1.0000   1.0000   1.0000   0.0000   0.0000   0.0000   0.0000

          k = 0.4384 0.2475 0.0000 (  8447 PWs)   bands (ev):

   -13.3637  -8.4471  -7.8321  -4.8151   0.1043   3.3228   3.6012   4.8688

     occupation numbers 
     1.0000   1.0000   1.0000   1.0000   0.0000   0.0000   0.0000   0.0000

          k = 0.4346-0.8201 0.0000 (  8459 PWs)   bands (ev):

   -13.2260  -8.5977  -7.7019  -5.0573  -0.1404   3.7025   3.9160   5.4567

     occupation numbers 
     1.0000   1.0000   1.0000   1.0000   0.0000   0.0000   0.0000   0.0000

          k = 0.4348-0.7489 0.0000 (  8477 PWs)   bands (ev):

   -13.1154  -8.5257  -7.5880  -5.6243  -0.1956   4.0577   4.6560   5.2564

     occupation numbers 
     1.0000   1.0000   1.0000   1.0000   0.0000   0.0000   0.0000   0.0000

          k = 0.4351-0.6777 0.0000 (  8467 PWs)   bands (ev):

   -13.0457  -8.2275  -7.5064  -6.3453  -0.1069   4.1216   4.4239   5.7136

     occupation numbers 
     1.0000   1.0000   1.0000   1.0000   0.0000   0.0000   0.0000   0.0000

          k = 0.4353-0.6066 0.0000 (  8465 PWs)   bands (ev):

   -13.0144  -7.7292  -7.4647  -7.0787   0.0093   3.8997   4.0850   6.2483

     occupation numbers 
     1.0000   1.0000   1.0000   1.0000   0.0000   0.0000   0.0000   0.0000

          k = 0.4356-0.5354 0.0000 (  8463 PWs)   bands (ev):

   -13.0143  -7.7284  -7.4647  -7.0796   0.0095   3.8995   4.0851   6.2483

     occupation numbers 
     1.0000   1.0000   1.0000   1.0000   0.0000   0.0000   0.0000   0.0000

          k = 0.4358-0.4642 0.0000 (  8467 PWs)   bands (ev):

   -13.0456  -8.2267  -7.5065  -6.3464  -0.1062   4.1217   4.4233   5.7123

     occupation numbers 
     1.0000   1.0000   1.0000   1.0000   0.0000   0.0000   0.0000   0.0000

          k = 0.4361-0.3930 0.0000 (  8477 PWs)   bands (ev):

   -13.1153  -8.5249  -7.5881  -5.6254  -0.1947   4.0578   4.6547   5.2558

     occupation numbers 
     1.0000   1.0000   1.0000   1.0000   0.0000   0.0000   0.0000   0.0000

          k = 0.4363-0.3219 0.0000 (  8459 PWs)   bands (ev):

   -13.2258  -8.5970  -7.7019  -5.0585  -0.1394   3.7022   3.9153   5.4568

     occupation numbers 
     1.0000   1.0000   1.0000   1.0000   0.0000   0.0000   0.0000   0.0000

          k =-0.4990 0.2865 0.0000 (  8462 PWs)   bands (ev):

   -13.2148  -8.6808  -7.7187  -4.8886  -0.1128   3.5397   3.9221   5.3911

     occupation numbers 
     1.0000   1.0000   1.0000   1.0000   0.0000   0.0000   0.0000   0.0000

          k =-0.4987 0.3577 0.0000 (  8468 PWs)   bands (ev):

   -13.2288  -8.5668  -7.7256  -5.0950  -0.0090   3.7812   3.8591   5.3782

     occupation numbers 
     1.0000   1.0000   1.0000   1.0000   0.0000   0.0000   0.0000   0.0000

          k =-0.4985 0.4289 0.0000 (  8468 PWs)   bands (ev):

   -13.2616  -8.2402  -7.7422  -5.6246   0.2752   3.5501   4.6781   4.6900

     occupation numbers 
     1.0000   1.0000   1.0000   1.0000   0.0000   0.0000   0.0000   0.0000

          k =-0.4982 0.5000 0.0000 (  8468 PWs)   bands (ev):

   -13.2933  -7.7586  -7.7468  -6.2982   0.6349   3.3754   3.9998   5.5241

     occupation numbers 
     1.0000   1.0000   1.0000   1.0000   0.0000   0.0000   0.0000   0.0000

          k =-0.4980 0.5712 0.0000 (  8481 PWs)   bands (ev):

   -13.3060  -7.7653  -7.3066  -6.8077   0.8233   3.3134   3.6863   5.3934

     occupation numbers 
     1.0000   1.0000   1.0000   1.0000   0.0000   0.0000   0.0000   0.0000

          k =-0.4977 0.6424 0.0000 (  8468 PWs)   bands (ev):

   -13.2933  -7.7585  -7.7476  -6.2973   0.6343   3.3753   4.0002   5.5243

     occupation numbers 
     1.0000   1.0000   1.0000   1.0000   0.0000   0.0000   0.0000   0.0000

          k =-0.4974 0.7136 0.0000 (  8470 PWs)   bands (ev):

   -13.2617  -8.2410  -7.7422  -5.6234   0.2743   3.5499   4.6783   4.6913

     occupation numbers 
     1.0000   1.0000   1.0000   1.0000   0.0000   0.0000   0.0000   0.0000

          k =-0.4972 0.7847 0.0000 (  8468 PWs)   bands (ev):

   -13.2289  -8.5675  -7.7256  -5.0938  -0.0100   3.7812   3.8603   5.3782

     occupation numbers 
     1.0000   1.0000   1.0000   1.0000   0.0000   0.0000   0.0000   0.0000

          k =-0.5010-0.2829 0.0000 (  8462 PWs)   bands (ev):

   -13.2150  -8.6815  -7.7186  -4.8874  -0.1139   3.5409   3.9219   5.3908

     occupation numbers 
     1.0000   1.0000   1.0000   1.0000   0.0000   0.0000   0.0000   0.0000

     the Fermi energy is    -2.1732 ev

!    total energy              =     -15.10408232 Ry
     estimated scf accuracy    <          3.1E-10 Ry
     smearing contrib. (-TS)   =      -0.00028792 Ry
     internal energy E=F+TS    =     -15.10379441 Ry

     The total energy is F=E-TS. E is the sum of the following terms:
     one-electron contribution =    -135.96794144 Ry
     hartree contribution      =      69.27475484 Ry
     xc contribution           =      -7.33815877 Ry
     ewald contribution        =      58.92755096 Ry
     electric field correction =       0.00000000 Ry

     convergence has been achieved in   8 iterations

     negative rho (up, down):  8.486E-05 0.000E+00


     -----------------------------------------------
     Non-local corr. energy    =       0.09938433 Ry
     -----------------------------------------------


     Forces acting on atoms (cartesian axes, Ry/au):

     atom    1 type  1   force =    -0.00008270   -0.00002251   -0.00000117
     atom    2 type  1   force =     0.00008460    0.00008509   -0.00000115
     atom    3 type  2   force =    -0.00000108   -0.00003132   -0.00001443
     atom    4 type  2   force =    -0.00000083   -0.00003126    0.00001675
     The non-local contrib.  to forces
     atom    1 type  1   force =    -0.00139295   -0.35745649   -0.00000083
     atom    2 type  1   force =     0.00140119    0.35756988   -0.00000085
     atom    3 type  2   force =    -0.00000286    0.00001182   -0.11296801
     atom    4 type  2   force =    -0.00000260    0.00001186    0.11296676
     The ionic contribution  to forces
     atom    1 type  1   force =     0.00230372    0.67671331    0.00000000
     atom    2 type  1   force =    -0.00233914   -0.67648273    0.00000000
     atom    3 type  2   force =     0.00001771   -0.00011529    2.80040747
     atom    4 type  2   force =     0.00001771   -0.00011529   -2.80040747
     The local contribution  to forces
     atom    1 type  1   force =    -0.00102536   -0.32721367   -0.00002493
     atom    2 type  1   force =     0.00105457    0.32693785   -0.00002488
     atom    3 type  2   force =    -0.00001592    0.00007193   -2.68746165
     atom    4 type  2   force =    -0.00001592    0.00007197    2.68745342
     The core correction contribution to forces
     atom    1 type  1   force =     0.00003195    0.00793526    0.00000109
     atom    2 type  1   force =    -0.00003204   -0.00794074    0.00000109
     atom    3 type  2   force =     0.00000000    0.00000000    0.00000000
     atom    4 type  2   force =     0.00000000    0.00000000    0.00000000
     The Hubbard contrib.    to forces
     atom    1 type  1   force =     0.00000000    0.00000000    0.00000000
     atom    2 type  1   force =     0.00000000    0.00000000    0.00000000
     atom    3 type  2   force =     0.00000000    0.00000000    0.00000000
     atom    4 type  2   force =     0.00000000    0.00000000    0.00000000
     The SCF correction term to forces
     atom    1 type  1   force =    -0.00000005   -0.00000093    0.00002407
     atom    2 type  1   force =     0.00000004    0.00000082    0.00002406
     atom    3 type  2   force =     0.00000000    0.00000020    0.00000675
     atom    4 type  2   force =    -0.00000001    0.00000019    0.00000302

     Total force =     0.000156     Total SCF correction =     0.000035
     SCF correction compared to forces is large: reduce conv_thr to get better values

     Writing all to output data dir ./TMPDIR/pwscf.save/
 
     init_run     :      2.87s CPU      2.93s WALL (       1 calls)
     electrons    :      7.78s CPU      8.21s WALL (       1 calls)
     forces       :      0.13s CPU      0.14s WALL (       1 calls)

     Called by init_run:
     wfcinit      :      0.35s CPU      0.37s WALL (       1 calls)
     wfcinit:atom :      0.00s CPU      0.00s WALL (     130 calls)
     wfcinit:wfcr :      0.32s CPU      0.34s WALL (     130 calls)
     potinit      :      2.45s CPU      2.47s WALL (       1 calls)
     hinit0       :      0.03s CPU      0.03s WALL (       1 calls)

     Called by electrons:
     c_bands      :      6.39s CPU      6.70s WALL (       8 calls)
     sum_band     :      0.99s CPU      1.02s WALL (       8 calls)
     v_of_rho     :      2.76s CPU      2.80s WALL (       9 calls)
     v_h          :      0.00s CPU      0.00s WALL (       9 calls)
     v_xc         :      2.79s CPU      2.82s WALL (      10 calls)
     newd         :      0.04s CPU      0.04s WALL (       9 calls)
     mix_rho      :      0.01s CPU      0.02s WALL (       8 calls)
     vdW_kernel   :      2.39s CPU      2.40s WALL (       1 calls)

     Called by c_bands:
     init_us_2    :      0.10s CPU      0.11s WALL (    2340 calls)
     init_us_2:cp :      0.10s CPU      0.10s WALL (    2340 calls)
     cegterg      :      6.10s CPU      6.36s WALL (    1040 calls)

     Called by sum_band:
     sum_band:wei :      0.01s CPU      0.01s WALL (       8 calls)
     sum_band:loo :      0.95s CPU      0.97s WALL (       8 calls)
     sum_band:buf :      0.01s CPU      0.01s WALL (    1040 calls)
     sum_band:ini :      0.05s CPU      0.05s WALL (    1040 calls)
     sum_band:cal :      0.05s CPU      0.05s WALL (    1040 calls)
     sum_band:bec :      0.01s CPU      0.01s WALL (    1040 calls)
     addusdens    :      0.03s CPU      0.03s WALL (       8 calls)
     addusd:skk   :      0.00s CPU      0.00s WALL (      16 calls)
     addusd:dgemm :      0.01s CPU      0.01s WALL (      16 calls)
     addusd:qvan2 :      0.01s CPU      0.01s WALL (      16 calls)

     Called by *egterg:
     cdiaghg      :      0.56s CPU      0.58s WALL (    5084 calls)
     cegterg:over :      0.17s CPU      0.17s WALL (    4044 calls)
     cegterg:upda :      0.05s CPU      0.05s WALL (    4044 calls)
     cegterg:last :      0.06s CPU      0.06s WALL (    2547 calls)
     h_psi        :      5.30s CPU      5.54s WALL (    5214 calls)
     s_psi        :      0.06s CPU      0.06s WALL (    5214 calls)
     g_psi        :      0.02s CPU      0.02s WALL (    4044 calls)

     Called by h_psi:
     h_psi:calbec :      0.22s CPU      0.23s WALL (    5214 calls)
     vloc_psi     :      4.96s CPU      5.19s WALL (    5214 calls)
     add_vuspsi   :      0.07s CPU      0.07s WALL (    5214 calls)

     General routines
     calbec       :      0.27s CPU      0.28s WALL (    6774 calls)
     fft          :      0.20s CPU      0.21s WALL (     626 calls)
     ffts         :      0.00s CPU      0.00s WALL (      17 calls)
     fftw         :      5.40s CPU      5.63s WALL (   59650 calls)
     interpolate  :      0.00s CPU      0.01s WALL (       9 calls)
 
     Parallel routines
 
     PWSCF        :     11.10s CPU     13.30s WALL

 
   This run was terminated on:  12: 4:18   2May2023            

=------------------------------------------------------------------------------=
   JOB DONE.
=------------------------------------------------------------------------------=
